                              Psi4 1.0.7 Driver

  ==> Input File <==

--------------------------------------------------------------------------
#! H3+ FCI Energy
#! Change IOFF_MAX for aug-cc-pv6Z

memory 180000 mb

molecule {
  0 1
  Li     0.000000000    0.000000000   -0.390581739
  H      0.000000000    0.000000000    2.689671855
units bohr
symmetry c2v
no_reorient
}

set {
    basis            aug-cc-pVTZ
    reference        rhf
    print_mos        true
    print_basis      true
    molden_write     true
    puream           true
}

set {
    num_roots       1
    dipmom          true
    tdm             true
    tdm_print       true
    num_dets_print  -1          # ALL
}

# C2v      A_1     A_2     B_1     B_2
set num_dets_print -1
set {
    reference_sym   0
    num_roots       2
}

thisenergy = prop('ci',level=1, properties=['DIPOLE', 'TRANSITION_DIPOLE'])

set {
    reference_sym   2
    num_roots       1
}

thisenergy = prop('ci',level=1, properties=['DIPOLE', 'TRANSITION_DIPOLE'])

set {
    reference_sym   3
    num_roots       1
}

thisenergy = prop('ci',level=1, properties=['DIPOLE', 'TRANSITION_DIPOLE'])

--------------------------------------------------------------------------

    Molecular point group: c2v
  Charge       = 0
  Multiplicity = 1
  Basis Set: AUG-CC-PVTZ
  @RHF Final Energy:    -7.98677047415267
    Total Energy =                         -7.9867704741526708
    Molecular point group: c2v
  Multiplicity = 1
  Basis Set: AUG-CC-PVTZ
  @RHF Final Energy:    -7.98677047415267
    Total Energy =                         -7.9867704741526708
    Molecular point group: c2v

    Geometry (in Bohr), charge = 0, multiplicity = 1:

       Center              X                  Y                   Z               Mass
    ------------   -----------------  -----------------  -----------------  -----------------
          LI          0.000000000000     0.000000000000    -0.386892149961     7.016004548000
           H          0.000000000000     0.000000000000     2.693361444039     1.007825032070

  Charge       = 0
  Multiplicity = 1
  Basis Set: AUG-CC-PVTZ

    Orbital Energies (a.u.)
    -----------------------

    Doubly Occupied:

       1A1    -2.449213     2A1    -0.299632

  @RHF Final Energy:    -7.98677047415267

   => Energetics <=

    Nuclear Repulsion Energy =              0.9739457835042137
    One-Electron Energy =                 -12.4237429283684389
    Two-Electron Energy =                   3.4630266707115553
    DFT Exchange-Correlation Energy =       0.0000000000000000
    Empirical Dispersion Energy =           0.0000000000000000
    PCM Polarization Energy =               0.0000000000000000
    EFP Energy =                            0.0000000000000000
    Total Energy =                         -7.9867704741526708
*** Psi4 exiting successfully. Buy a developer a beer!
